 Gaussian 16, Revision C.01,

 ----------------------------------------------------------------------
 #P tda(singlets,nstates=10,Root=1) scf(maxcycle=500,xqc) wb97xd/6-31G(
 d) scrf=(smd,solvent=acetonitrile) Guess(read) Geom(Allcheck)
 ----------------------------------------------------------------------

 Structure from the checkpoint file:  "dimethyltetrazole-td-singlets-root-1.chk"
 ----------
 OPT + Freq
 ----------
 Charge =  0 Multiplicity = 1

 SCF Done:  E(RwB97XD) =  -336.749548254     A.U. after    1 cycles

 Excitation energies and oscillator strengths:

 Excited State   1:      Singlet-A      4.0004 eV  309.93 nm  f=0.0082  <S**2>=0.000
      25 -> 27        -0.21745
      26 -> 27         0.66618
 This state for optimization and/or second-order correction.
 Total Energy, E(CIS/TDA) =  -336.602535754
 Copying the excited state density for this state as the 1-particle RhoCI density.

 Excited State   2:      Singlet-A      5.6276 eV  220.31 nm  f=0.0200  <S**2>=0.000
      23 -> 27         0.59239
      25 -> 27        -0.34508
      26 -> 27        -0.11745

 Excited State   3:      Singlet-A      6.0572 eV  204.69 nm  f=0.1252  <S**2>=0.000
      23 -> 27         0.30635
      24 -> 27         0.29794
      24 -> 28        -0.10145
      25 -> 27         0.49413
      26 -> 27         0.17152

 Excited State   4:      Singlet-A      6.7518 eV  183.63 nm  f=0.0466  <S**2>=0.000
      23 -> 27        -0.16617
      24 -> 27         0.55010
      25 -> 27        -0.17620
      26 -> 28         0.30009

 Excited State   5:      Singlet-A      6.9870 eV  177.45 nm  f=0.0287  <S**2>=0.000
      23 -> 27         0.12833
      24 -> 27        -0.22313
      25 -> 27         0.12974
      25 -> 28        -0.23102
      26 -> 28         0.56867

 Excited State   6:      Singlet-A      7.6473 eV  162.13 nm  f=0.0280  <S**2>=0.000
      19 -> 27        -0.18022
      21 -> 27        -0.29803
      22 -> 27         0.55868
      26 -> 28         0.13174

 Excited State   7:      Singlet-A      8.1737 eV  151.69 nm  f=0.0032  <S**2>=0.000
      18 -> 27        -0.10719
      20 -> 27        -0.15949
      21 -> 27         0.55301
      22 -> 27         0.26157
      25 -> 28         0.21442

 Excited State   8:      Singlet-A      8.6243 eV  143.76 nm  f=0.0971  <S**2>=0.000
      19 -> 27         0.14813
      20 -> 27         0.40959
      21 -> 27         0.14533
      22 -> 27         0.15403
      23 -> 28         0.24578
      24 -> 28        -0.14484
      25 -> 28        -0.35921
      26 -> 28        -0.16254

 Excited State   9:      Singlet-A      8.6658 eV  143.07 nm  f=0.1403  <S**2>=0.000
      17 -> 27         0.10870
      19 -> 27         0.13101
      20 -> 27         0.46588
      23 -> 28        -0.18551
      24 -> 28        -0.11973
      25 -> 28         0.40368
      26 -> 28         0.11518

 Excited State  10:      Singlet-A      9.0373 eV  137.19 nm  f=0.0845  <S**2>=0.000
      19 -> 27         0.11087
      21 -> 27        -0.10676
      23 -> 28         0.52730
      24 -> 28         0.31525
      25 -> 28         0.24392

 The electronic state is 1-A.
 Alpha  occ. eigenvalues --  -14.55783 -14.54969 -14.50255 -14.48708 -10.37819
 Alpha  occ. eigenvalues --  -10.33028 -10.30419  -1.21679  -1.02626  -0.99913
 Alpha  occ. eigenvalues --   -0.85241  -0.80974  -0.72987  -0.69460  -0.58974
 Alpha  occ. eigenvalues --   -0.58659  -0.53151  -0.51702  -0.50602  -0.48679
 Alpha  occ. eigenvalues --   -0.47602  -0.46664  -0.41081  -0.39350  -0.37270
 Alpha  occ. eigenvalues --   -0.34576
 Alpha virt. eigenvalues --    0.00308   0.11191   0.19294   0.21058   0.22109
 Alpha virt. eigenvalues --    0.23770   0.24817   0.25774   0.26572   0.28256
 Alpha virt. eigenvalues --    0.29428   0.31335   0.36929   0.41863   0.51260

 Mulliken charges:
               1
     1  N   -0.364947
     2  C    0.507152
     3  C   -0.582402
     4  N   -0.347329
     5  N   -0.149962
     6  N   -0.048718
     7  C   -0.370369
     8  H    0.235020
     9  H    0.226150
    10  H    0.226044
    11  H    0.222480
    12  H    0.226471
    13  H    0.220409
 Sum of Mulliken charges =   0.00000

 Dipole moment (field-independent basis, Debye):
    X=              0.1951    Y=             -2.3868    Z=              0.9349  Tot=              2.5708
 Quadrupole moment (field-independent basis, Debye-Ang):
   XX=            -28.3415   YY=            -47.5831   ZZ=            -40.4378
   XY=              0.3188   XZ=             -1.3814   YZ=             -1.4297

 Normal termination of Gaussian 16 at Mon Feb 17 21:01:58 2025.
 Gaussian 16:  ES64L-G16RevC.01  3-Jul-2019

 ----------------------------------------------------------------------
 #P tda(singlets,nstates=10,Root=1) freq(ReadFC) scf(maxcycle=500,xqc)
 wb97xd/6-31G(d) scrf=(smd,solvent=acetonitrile) Guess(read) Geom(Allch
 eck)
 ----------------------------------------------------------------------

 Structure from the checkpoint file:  "dimethyltetrazole-td-singlets-root-1.chk"
 ----------
 OPT + Freq
 ----------
 Charge =  0 Multiplicity = 1

                         Standard orientation:
 ---------------------------------------------------------------------
 Center     Atomic      Atomic             Coordinates (Angstroms)
 Number     Number       Type             X           Y           Z
 ---------------------------------------------------------------------
      1          7           0        0.509735    1.127621    0.121715
      2          6           0        1.066962   -0.075127   -0.012990
      3          6           0        2.508901   -0.392986    0.126879
      4          7           0        0.074611   -0.913779   -0.257640
      5          7           0       -1.088729   -0.069398   -0.409438
      6          7           0       -0.772405    1.276759   -0.063920
      7          6           0       -2.251694   -0.587738    0.292674
      8          1           0        3.007885   -0.321104   -0.844493
      9          1           0        2.621342   -1.412670    0.501186
     10          1           0        2.986374    0.303524    0.819020
     11          1           0       -2.417980   -1.601697   -0.084601
     12          1           0       -3.110238    0.043240    0.056590
     13          1           0       -2.094877   -0.624608    1.377897
 ---------------------------------------------------------------------

                      1                      2                      3
                      A                      A                      A
 Frequencies --     53.1635               113.3772               241.5900
 Red. masses --      1.0534                 3.6013                 3.2018
 Frc consts  --      0.0018                 0.0273                 0.1101
 IR Inten    --      0.7019                17.4997                16.3098

                      4                      5                      6
                      A                      A                      A
 Frequencies --    251.2402               298.3567               414.4802
 Red. masses --      1.1228                 3.0389                 4.4942
 Frc consts  --      0.0418                 0.1594                 0.4549
 IR Inten    --      7.9688                 4.8112                 3.7688

                      7                      8                      9
                      A                      A                      A
 Frequencies --    423.4773               502.7267               638.2047
 Red. masses --      4.3310                 5.9323                 5.7182
 Frc consts  --      0.4576                 0.8834                 1.3722
 IR Inten    --     16.7699                82.3818                 7.3535

                     10                     11                     12
                      A                      A                      A
 Frequencies --    709.5423               769.0556               906.3054
 Red. masses --      6.4112                 6.7126                 4.0583
 Frc consts  --      1.9017                 2.3391                 1.9640
 IR Inten    --     66.6483                 8.1700                 9.1434

                     13                     14                     15
                      A                      A                      A
 Frequencies --    968.5531              1030.2644              1077.7439
 Red. masses --      2.6110                 4.5834                 1.4488
 Frc consts  --      1.4431                 2.8664                 0.9915
 IR Inten    --     96.7177                35.7669                13.2300

                     16                     17                     18
                      A                      A                      A
 Frequencies --   1107.5010              1165.0838              1214.3102
 Red. masses --      2.0390                 1.5397                 2.9328
 Frc consts  --      1.4735                 1.2314                 2.5479
 IR Inten    --     33.3252                39.2742                12.8469

                     19                     20                     21
                      A                      A                      A
 Frequencies --   1252.8890              1344.4372              1437.4120
 Red. masses --      4.9280                 5.3770                 1.2374
 Frc consts  --      4.5577                 5.7262                 1.5063
 IR Inten    --    108.7706                52.4109                 4.2408

                     22                     23                     24
                      A                      A                      A
 Frequencies --   1455.3652              1474.6764              1488.3161
 Red. masses --      1.1641                 1.0544                 1.0467
 Frc consts  --      1.4527                 1.3510                 1.3661
 IR Inten    --      2.3987                15.7307                18.7479

                     25                     26                     27
                      A                      A                      A
 Frequencies --   1496.5288              1510.8633              1582.8418
 Red. masses --      1.0723                 1.0534                10.9870
 Frc consts  --      1.4149                 1.4167                16.2183
 IR Inten    --      5.9435                12.6873                73.1035

                     28                     29                     30
                      A                      A                      A
 Frequencies --   3059.2660              3093.8145              3147.9719
 Red. masses --      1.0366                 1.0372                 1.1008
 Frc consts  --      5.7159                 5.8494                 6.4273
 IR Inten    --     23.0635                 6.1193                17.2560

                     31                     32                     33
                      A                      A                      A
 Frequencies --   3175.9196              3196.8683              3199.8946
 Red. masses --      1.1020                 1.1048                 1.1055
 Frc consts  --      6.5488                 6.6526                 6.6690
 IR Inten    --      2.3505                14.9107                 2.0952

 - Thermochemistry -
 -------------------
 Temperature   298.150 Kelvin.  Pressure   1.00000 Atm.
 Atom     1 has atomic number  7 and mass  14.00307

 Molecular mass:    98.05925 amu.
 Principal axes and moments of inertia in atomic units:
                           1         2         3
     Eigenvalues --   256.39107 828.800251026.09995
           X            0.99994   0.00755  -0.00757
           Y           -0.00769   0.99981  -0.01775
           Z            0.00743   0.01780   0.99981
 This molecule is an asymmetric top.
 Rotational symmetry number  1.
 Rotational temperatures (Kelvin)      0.33782     0.10451     0.08441
 Rotational constants (GHZ):           7.03902     2.17753     1.75884
 Zero-point vibrational energy     261994.4 (Joules/Mol)
                                   62.61816 (Kcal/Mol)
 Warning -- explicit consideration of   8 degrees of freedom as
           vibrations may cause significant error
 Vibrational temperatures:     76.49   163.12   347.59   361.48   429.27
          (Kelvin)            596.34   609.29   723.31   918.23  1020.87
                             1106.50  1303.97  1393.53  1482.32  1550.63
                             1593.45  1676.30  1747.12  1802.63  1934.35
                             2068.12  2093.95  2121.73  2141.35  2153.17
                             2173.80  2277.36  4401.60  4451.31  4529.23
                             4569.44  4599.58  4603.93

 Zero-point correction=                           0.099788 (Hartree/Particle)
 Thermal correction to Energy=                    0.106978
 Thermal correction to Enthalpy=                  0.107922
 Thermal correction to Gibbs Free Energy=         0.068283
 Sum of electronic and zero-point Energies=           -336.503567
 Sum of electronic and thermal Energies=              -336.496377
 Sum of electronic and thermal Enthalpies=            -336.495433
 Sum of electronic and thermal Free Energies=         -336.535072

                     E (Thermal)             CV                S
                      KCal/Mol        Cal/Mol-Kelvin    Cal/Mol-Kelvin
 Total                   67.130             24.751             83.428
 Electronic               0.000              0.000              0.000
 Translational            0.889              2.981             39.660
 Rotational               0.889              2.981             26.880
 Vibrational             65.352             18.790             16.888
 Vibration     1          0.596              1.976              4.696
 Vibration     2          0.607              1.938              3.210
 Vibration     3          0.658              1.777              1.791
 Vibration     4          0.663              1.761              1.722
 Vibration     5          0.691              1.677              1.426
 Vibration     6          0.778              1.439              0.911
 Vibration     7          0.786              1.419              0.880
 Vibration     8          0.858              1.244              0.651

 Normal termination of Gaussian 16 at Mon Feb 17 21:01:59 2025.
