 Gaussian 16, Revision C.01,

 ----------------------------------------------------------------------
 #P tda(triplets,nstates=10,Root=1) scf(maxcycle=500,xqc) wb97xd/6-31G(
 d) scrf=(smd,solvent=acetonitrile) Guess(read) Geom(Allcheck)
 ----------------------------------------------------------------------

 Structure from the checkpoint file:  "dimethyltetrazole-td-triplets-root-1.chk"
 ----------
 OPT + Freq
 ----------
 Charge =  0 Multiplicity = 1

 SCF Done:  E(RwB97XD) =  -336.750975611     A.U. after    1 cycles

 Excitation energies and oscillator strengths:

 Excited State   1:      Triplet-A      2.5314 eV  489.79 nm  f=0.0000  <S**2>=2.000
      26 -> 27         0.69338
 This state for optimization and/or second-order correction.
 Total Energy, E(CIS/TDA) =  -336.657948920
 Copying the excited state density for this state as the 1-particle RhoCI density.

 Excited State   2:      Triplet-A      4.1571 eV  298.25 nm  f=0.0000  <S**2>=2.000
      24 -> 27         0.10532
      25 -> 27         0.67947

 Excited State   3:      Triplet-A      4.6020 eV  269.41 nm  f=0.0000  <S**2>=2.000
      23 -> 27         0.44236
      24 -> 27         0.49191
      26 -> 28        -0.18814

 Excited State   4:      Triplet-A      4.7884 eV  258.92 nm  f=0.0000  <S**2>=2.000
      23 -> 27         0.50104
      24 -> 27        -0.44824
      25 -> 27         0.11967

 Excited State   5:      Triplet-A      5.5340 eV  224.04 nm  f=0.0000  <S**2>=2.000
      23 -> 27         0.11959
      24 -> 27         0.13317
      26 -> 28         0.65655

 Excited State   6:      Triplet-A      6.2227 eV  199.25 nm  f=0.0000  <S**2>=2.000
      17 -> 27        -0.15033
      19 -> 27        -0.13416
      21 -> 27        -0.10079
      22 -> 27         0.59464
      24 -> 28        -0.23131
      25 -> 28        -0.12051

 Excited State   7:      Triplet-A      7.0685 eV  175.40 nm  f=0.0000  <S**2>=2.000
      16 -> 27        -0.16543
      18 -> 27        -0.13788
      20 -> 27         0.11026
      21 -> 27         0.40102
      23 -> 27        -0.10179
      23 -> 28         0.31854
      25 -> 28         0.34247

 Excited State   8:      Triplet-A      7.1646 eV  173.05 nm  f=0.0000  <S**2>=2.000
      20 -> 27         0.13864
      21 -> 27         0.15842
      22 -> 27         0.11736
      23 -> 28         0.12661
      24 -> 27        -0.10938
      24 -> 28         0.47213
      25 -> 28        -0.36427

 Excited State   9:      Triplet-A      7.5197 eV  164.88 nm  f=0.0000  <S**2>=2.000
      21 -> 27         0.17584
      22 -> 27        -0.16486
      24 -> 28        -0.35816
      25 -> 28        -0.33212
      25 -> 29         0.12759
      26 -> 29         0.37200

 Excited State  10:      Triplet-A      7.9280 eV  156.39 nm  f=0.0000  <S**2>=2.000
      17 -> 27         0.11090
      18 -> 27         0.11375
      20 -> 27         0.13539
      21 -> 27        -0.31083
      22 -> 27         0.10358
      23 -> 28         0.10503
      24 -> 28         0.11735
      25 -> 28         0.23993
      26 -> 29         0.47168

 The electronic state is 1-A.
 Alpha  occ. eigenvalues --  -14.57305 -14.53460 -14.50872 -14.50261 -10.37358
 Alpha  occ. eigenvalues --  -10.33262 -10.29631  -1.20775  -1.06415  -0.96054
 Alpha  occ. eigenvalues --   -0.85995  -0.80156  -0.72164  -0.69319  -0.59026
 Alpha  occ. eigenvalues --   -0.58670  -0.53150  -0.51478  -0.50548  -0.48570
 Alpha  occ. eigenvalues --   -0.47396  -0.45919  -0.41492  -0.40010  -0.38989
 Alpha  occ. eigenvalues --   -0.33196
 Alpha virt. eigenvalues --   -0.00297   0.09745   0.18462   0.20870   0.21786
 Alpha virt. eigenvalues --    0.23576   0.25568   0.25939   0.26845   0.28056
 Alpha virt. eigenvalues --    0.31612   0.32469   0.36362   0.39467   0.49879

 Mulliken charges:
               1
     1  N   -0.325446
     2  C    0.455307
     3  C   -0.584803
     4  N   -0.299191
     5  N   -0.112972
     6  N   -0.112297
     7  C   -0.377392
     8  H    0.217324
     9  H    0.219936
    10  H    0.223702
    11  H    0.232321
    12  H    0.230964
    13  H    0.232547
 Sum of Mulliken charges =   0.00000

 Dipole moment (field-independent basis, Debye):
    X=             -0.8420    Y=             -2.7699    Z=              0.4459  Tot=              2.9292
 Quadrupole moment (field-independent basis, Debye-Ang):
   XX=            -28.6586   YY=            -47.7812   ZZ=            -40.2378
   XY=              0.5690   XZ=             -0.5391   YZ=             -0.3484

 Normal termination of Gaussian 16 at Mon Feb 17 21:02:06 2025.
 Gaussian 16:  ES64L-G16RevC.01  3-Jul-2019

 ----------------------------------------------------------------------
 #P tda(triplets,nstates=10,Root=1) freq(ReadFC) scf(maxcycle=500,xqc)
 wb97xd/6-31G(d) scrf=(smd,solvent=acetonitrile) Guess(read) Geom(Allch
 eck)
 ----------------------------------------------------------------------

 Structure from the checkpoint file:  "dimethyltetrazole-td-triplets-root-1.chk"
 ----------
 OPT + Freq
 ----------
 Charge =  0 Multiplicity = 1

                         Standard orientation:
 ---------------------------------------------------------------------
 Center     Atomic      Atomic             Coordinates (Angstroms)
 Number     Number       Type             X           Y           Z
 ---------------------------------------------------------------------
      1          7           0        0.696269    1.230638    0.015026
      2          6           0        1.059441   -0.030198   -0.007598
      3          6           0        2.444622   -0.525437    0.059369
      4          7           0       -0.023376   -0.931691   -0.044018
      5          7           0       -1.051203   -0.133577   -0.329521
      6          7           0       -0.633809    1.280505    0.041777
      7          6           0       -2.369487   -0.499799    0.147921
      8          1           0        3.155680    0.300103    0.011506
      9          1           0        2.621907   -1.228471   -0.762845
     10          1           0        2.590040   -1.082073    0.993121
     11          1           0       -2.578579   -1.521553   -0.173267
     12          1           0       -3.097782    0.182793   -0.292145
     13          1           0       -2.413888   -0.439319    1.242634
 ---------------------------------------------------------------------

                      1                      2                      3
                      A                      A                      A
 Frequencies --    123.5084               132.8591               184.1771
 Red. masses --      2.3151                 1.3560                 1.1066
 Frc consts  --      0.0208                 0.0141                 0.0221
 IR Inten    --      8.0652                 5.7119                 0.4223

                      4                      5                      6
                      A                      A                      A
 Frequencies --    249.1963               276.5872               310.1560
 Red. masses --      3.7866                 2.9239                 4.7807
 Frc consts  --      0.1385                 0.1318                 0.2710
 IR Inten    --      3.0342                14.4925                13.4478

                      7                      8                      9
                      A                      A                      A
 Frequencies --    418.6616               564.3267               593.5850
 Red. masses --      3.3664                 4.2719                 4.8705
 Frc consts  --      0.3476                 0.8016                 1.0111
 IR Inten    --      1.2056                22.7618                 4.9777

                     10                     11                     12
                      A                      A                      A
 Frequencies --    664.9252               746.3476               941.0657
 Red. masses --      5.5617                 6.0301                 2.6099
 Frc consts  --      1.4488                 1.9791                 1.3618
 IR Inten    --     11.1173                30.7464                91.7516

                     13                     14                     15
                      A                      A                      A
 Frequencies --   1022.5472              1034.5998              1075.0679
 Red. masses --      4.5076                 1.8170                 2.3423
 Frc consts  --      2.7769                 1.1459                 1.5950
 IR Inten    --     10.3629                25.8644                 7.7403

                     16                     17                     18
                      A                      A                      A
 Frequencies --   1114.5352              1149.7059              1206.7627
 Red. masses --      3.3952                 1.6809                 1.9565
 Frc consts  --      2.4848                 1.3090                 1.6787
 IR Inten    --     60.8896                 3.0242                34.2138

                     19                     20                     21
                      A                      A                      A
 Frequencies --   1319.6783              1404.0993              1432.1529
 Red. masses --      3.3826                 6.3546                 1.5028
 Frc consts  --      3.4708                 7.3813                 1.8160
 IR Inten    --    193.7190                 9.6934                55.2841

                     22                     23                     24
                      A                      A                      A
 Frequencies --   1457.3741              1464.2518              1468.8654
 Red. masses --      1.1811                 1.1726                 1.0708
 Frc consts  --      1.4780                 1.4812                 1.3612
 IR Inten    --     98.0902                 5.2187                29.5692

                     25                     26                     27
                      A                      A                      A
 Frequencies --   1491.6745              1506.8640              1576.8596
 Red. masses --      1.0453                 1.0677                 4.6361
 Frc consts  --      1.3704                 1.4284                 6.7919
 IR Inten    --     22.4897                13.1878               151.6313

                     28                     29                     30
                      A                      A                      A
 Frequencies --   3068.5106              3073.2258              3141.1295
 Red. masses --      1.0414                 1.0386                 1.0997
 Frc consts  --      5.7773                 5.7796                 6.3926
 IR Inten    --     21.5944                 2.5645                 0.1858

                     31                     32                     33
                      A                      A                      A
 Frequencies --   3171.4416              3205.1253              3211.9167
 Red. masses --      1.0943                 1.1033                 1.1072
 Frc consts  --      6.4851                 6.6776                 6.7298
 IR Inten    --     12.4408                 6.6576                 4.9567

 - Thermochemistry -
 -------------------
 Temperature   298.150 Kelvin.  Pressure   1.00000 Atm.
 Atom     1 has atomic number  7 and mass  14.00307

 Molecular mass:    98.05925 amu.
 Principal axes and moments of inertia in atomic units:
                           1         2         3
     Eigenvalues --   261.47104 826.857101051.79839
           X            0.99998  -0.00425  -0.00463
           Y            0.00422   0.99996  -0.00797
           Z            0.00466   0.00795   0.99996
 This molecule is an asymmetric top.
 Rotational symmetry number  1.
 Rotational temperatures (Kelvin)      0.33126     0.10475     0.08235
 Rotational constants (GHZ):           6.90226     2.18265     1.71586
 Zero-point vibrational energy     261992.8 (Joules/Mol)
                                   62.61779 (Kcal/Mol)
 Warning -- explicit consideration of   9 degrees of freedom as
           vibrations may cause significant error
 Vibrational temperatures:    177.70   191.15   264.99   358.54   397.95
          (Kelvin)            446.25   602.36   811.94   854.04   956.68
                             1073.83  1353.98  1471.22  1488.56  1546.78
                             1603.57  1654.17  1736.26  1898.72  2020.19
                             2060.55  2096.84  2106.73  2113.37  2146.19
                             2168.04  2268.75  4414.90  4421.69  4519.38
                             4563.00  4611.46  4621.23

 Zero-point correction=                           0.099788 (Hartree/Particle)
 Thermal correction to Energy=                    0.107030
 Thermal correction to Enthalpy=                  0.107974
 Thermal correction to Gibbs Free Energy=         0.068736
 Sum of electronic and zero-point Energies=           -336.558161
 Sum of electronic and thermal Energies=              -336.550919
 Sum of electronic and thermal Enthalpies=            -336.549975
 Sum of electronic and thermal Free Energies=         -336.589213

                     E (Thermal)             CV                S
                      KCal/Mol        Cal/Mol-Kelvin    Cal/Mol-Kelvin
 Total                   67.162             24.985             82.583
 Electronic               0.000              0.000              0.000
 Translational            0.889              2.981             39.660
 Rotational               0.889              2.981             26.922
 Vibrational             65.385             19.023             16.002
 Vibration     1          0.610              1.929              3.045
 Vibration     2          0.613              1.921              2.904
 Vibration     3          0.631              1.861              2.286
 Vibration     4          0.662              1.764              1.736
 Vibration     5          0.678              1.717              1.555
 Vibration     6          0.699              1.654              1.361
 Vibration     7          0.782              1.430              0.897
 Vibration     8          0.920              1.108              0.515
 Vibration     9          0.951              1.045              0.461

 Normal termination of Gaussian 16 at Mon Feb 17 21:02:07 2025.
